1
cutoff=5.50000000 pbc=[T, T, T] nneightol=1.20000000 config_type=isolated_atom dft_energy=-158.54496821 gap_virial=[[0.00000000, 0.00000000, 0.00000000], [0.00000000, 0.00000000, 0.00000000], [0.00000000, 0.00000000, 0.00000000]] gap_energy=-157.72725320 Lattice="20.00000000 0.00000000 0.00000000 0.00000000 20.00000000 0.00000000 0.00000000 0.00000000 20.00000000" Properties=species:S:1:pos:R:3:gap_force:R:3:velocities:R:3:n_neighb:I:1:dft_force:R:3:map_shift:I:3:Z:I:1
Si        10.00000000      10.00000000      10.00000000         0.00000000       0.00000000       0.00000000         0.00000000       0.00000000       0.00000000          0         0.00000000       0.00000000       0.00000000         -1       -1       -1         14
2
pbc=[T, T, T] opt_strategy_bias=3 dft_virial=[[-0.88233585, 0.26180002, 1.03122757], [0.26180002, 1.63449840, -0.42361538], [1.03122757, -0.42361538, 2.17201527]] castep_run_time=65.96000000 cutoff_factor=1.20000000 fix_occupancy=F num_dump_cycles=0 finite_basis_corr=automatic spin_polarized=F elec_energy_tol=0.00000010 cutoff=-1.00000000 mixing_scheme=pulay smearing_width=0.05000000 mix_charge_amp=0.05000000 dft_energy=-326.23766100 in_file=md_sample_dia.xyz@386 nneightol=1.20000000 xc_functional=PW91 max_scf_cycles=250 fine_grid_scale=4 cut_off_energy="250 eV" popn_calculate=F castep_file_name=md_sample_dia.xyz-00386/eval.castep task=SinglePoint calculate_stress=T kpoints_mp_grid=[11, 11, 11] mix_history_length=20 config_type=dia Lattice="3.93551400 0.00000000 0.00000000 1.96707400 3.25657400 0.00000000 1.72837500 1.08562300 3.06191700" Properties=species:S:1:pos:R:3:velocities:R:3:dft_force:R:3:frac_pos:R:3:Z:I:1
Si         0.00000000       0.00000000       0.00000000         0.00000000       0.00000000       0.00000000        -0.09105000       0.77721000       0.54967000         0.00000000       0.00000000       0.00000000         14
Si         1.93079748       1.11474625       0.78824460         0.00000000       0.00000000       0.00000000         0.09105000      -0.77721000      -0.54967000         0.24935100       0.25648700       0.25743500         14
2
pbc=[T, T, T] opt_strategy_bias=3 dft_virial=[[-0.17514188, 0.11222387, 0.83258303], [0.11222387, 2.06032164, -0.37838018], [0.83258303, -0.37838018, -1.55166427]] castep_run_time=66.72000000 cutoff_factor=1.20000000 fix_occupancy=F num_dump_cycles=0 finite_basis_corr=automatic spin_polarized=F elec_energy_tol=0.00000010 cutoff=-1.00000000 mixing_scheme=pulay smearing_width=0.05000000 mix_charge_amp=0.05000000 dft_energy=-326.23641300 in_file=md_sample_dia.xyz@387 nneightol=1.20000000 xc_functional=PW91 max_scf_cycles=250 fine_grid_scale=4 cut_off_energy="250 eV" popn_calculate=F castep_file_name=md_sample_dia.xyz-00387/eval.castep task=SinglePoint calculate_stress=T kpoints_mp_grid=[11, 11, 11] mix_history_length=20 config_type=dia Lattice="3.86745100 0.00000000 0.00000000 1.90342700 3.24092400 0.00000000 1.72393300 1.06735300 3.25666600" Properties=species:S:1:pos:R:3:velocities:R:3:dft_force:R:3:frac_pos:R:3:Z:I:1
Si         0.00000000       0.00000000       0.00000000         0.00000000       0.00000000       0.00000000         0.32830000       0.85701000      -0.74716000         0.00000000       0.00000000       0.00000000         14
Si         1.93079670       1.11474656       0.78824344         0.00000000       0.00000000       0.00000000        -0.32830000      -0.85701000       0.74716000         0.26129900       0.26424700       0.24204000         14
2
pbc=[T, T, T] opt_strategy_bias=3 dft_virial=[[-1.87014526, 0.77128738, 0.87612272], [0.77128738, 1.96171518, -0.41577308], [0.87612272, -0.41577308, 2.88399691]] castep_run_time=66.07000000 cutoff_factor=1.20000000 fix_occupancy=F num_dump_cycles=0 finite_basis_corr=automatic spin_polarized=F elec_energy_tol=0.00000010 cutoff=-1.00000000 mixing_scheme=pulay smearing_width=0.05000000 mix_charge_amp=0.05000000 dft_energy=-326.12843000 in_file=md_sample_dia.xyz@388 nneightol=1.20000000 xc_functional=PW91 max_scf_cycles=250 fine_grid_scale=4 cut_off_energy="250 eV" popn_calculate=F castep_file_name=md_sample_dia.xyz-00388/eval.castep task=SinglePoint calculate_stress=T kpoints_mp_grid=[11, 11, 11] mix_history_length=20 config_type=dia Lattice="4.05300900 0.00000000 0.00000000 1.93570900 3.23054800 0.00000000 1.85724400 0.96302800 3.03223300" Properties=species:S:1:pos:R:3:velocities:R:3:dft_force:R:3:frac_pos:R:3:Z:I:1
Si         0.00000000       0.00000000       0.00000000         0.00000000       0.00000000       0.00000000        -0.54204000       1.28048000       0.88643000         0.00000000       0.00000000       0.00000000         14
Si         1.93079559       1.11474490       0.78824413         0.00000000       0.00000000       0.00000000         0.54204000      -1.28048000      -0.88643000         0.22947300       0.26757100       0.25995500         14
2
pbc=[T, T, T] opt_strategy_bias=3 dft_virial=[[0.76309107, -0.04145759, 0.58695163], [-0.04145759, -0.14150850, 0.49948180], [0.58695163, 0.49948180, -1.81808663]] castep_run_time=65.23000000 cutoff_factor=1.20000000 fix_occupancy=F num_dump_cycles=0 finite_basis_corr=automatic spin_polarized=F elec_energy_tol=0.00000010 cutoff=-1.00000000 mixing_scheme=pulay smearing_width=0.05000000 mix_charge_amp=0.05000000 dft_energy=-326.22934600 in_file=md_sample_dia.xyz@390 nneightol=1.20000000 xc_functional=PW91 max_scf_cycles=250 fine_grid_scale=4 cut_off_energy="250 eV" popn_calculate=F castep_file_name=md_sample_dia.xyz-00390/eval.castep task=SinglePoint calculate_stress=T kpoints_mp_grid=[11, 11, 11] mix_history_length=20 config_type=dia Lattice="3.79292700 0.00000000 0.00000000 1.82708500 3.35690500 0.00000000 1.67878100 1.05013400 3.26853100" Properties=species:S:1:pos:R:3:velocities:R:3:dft_force:R:3:frac_pos:R:3:Z:I:1
Si         0.00000000       0.00000000       0.00000000         0.00000000       0.00000000       0.00000000         0.93530000      -0.15970000      -0.68241000         0.00000000       0.00000000       0.00000000         14
Si         1.93079552       1.11474502       0.78824547         0.00000000       0.00000000       0.00000000        -0.93530000       0.15970000       0.68241000         0.27868900       0.25663300       0.24116200         14
2
pbc=[T, T, T] opt_strategy_bias=3 dft_virial=[[-2.23442344, 1.01039192, 0.80917407], [1.01039192, -0.02366075, -0.54241597], [0.80917407, -0.54241597, 1.68668839]] castep_run_time=59.55000000 cutoff_factor=1.20000000 fix_occupancy=F num_dump_cycles=0 finite_basis_corr=automatic spin_polarized=F elec_energy_tol=0.00000010 cutoff=-1.00000000 mixing_scheme=pulay smearing_width=0.05000000 mix_charge_amp=0.05000000 dft_energy=-326.21004600 in_file=md_sample_dia.xyz@392 nneightol=1.20000000 xc_functional=PW91 max_scf_cycles=250 fine_grid_scale=4 cut_off_energy="250 eV" popn_calculate=F castep_file_name=md_sample_dia.xyz-00392/eval.castep task=SinglePoint calculate_stress=T kpoints_mp_grid=[10, 11, 11] mix_history_length=20 config_type=dia Lattice="4.07191900 0.00000000 0.00000000 1.89175000 3.32827300 0.00000000 1.85538000 1.18850400 3.07242000" Properties=species:S:1:pos:R:3:velocities:R:3:dft_force:R:3:frac_pos:R:3:Z:I:1
Si         0.00000000       0.00000000       0.00000000         0.00000000       0.00000000       0.00000000        -0.53524000       0.19697000       0.73710000         0.00000000       0.00000000       0.00000000         14
Si         1.93079676       1.11474537       0.78824471         0.00000000       0.00000000       0.00000000         0.53524000      -0.19697000      -0.73710000         0.24423200       0.24331800       0.25655500         14
2
pbc=[T, T, T] opt_strategy_bias=3 dft_virial=[[-1.54861568, 0.72006364, 0.36266217], [0.72006364, 0.24470278, -0.60899057], [0.36266217, -0.60899057, -0.19884924]] castep_run_time=70.55000000 cutoff_factor=1.20000000 fix_occupancy=F num_dump_cycles=0 finite_basis_corr=automatic spin_polarized=F elec_energy_tol=0.00000010 cutoff=-1.00000000 mixing_scheme=pulay smearing_width=0.05000000 mix_charge_amp=0.05000000 dft_energy=-326.30100800 in_file=md_sample_dia.xyz@393 nneightol=1.20000000 xc_functional=PW91 max_scf_cycles=250 fine_grid_scale=4 cut_off_energy="250 eV" popn_calculate=F castep_file_name=md_sample_dia.xyz-00393/eval.castep task=SinglePoint calculate_stress=T kpoints_mp_grid=[11, 11, 11] mix_history_length=20 config_type=dia Lattice="3.99378500 0.00000000 0.00000000 1.89963500 3.31699800 0.00000000 1.93535900 1.19248500 3.15789800" Properties=species:S:1:pos:R:3:velocities:R:3:dft_force:R:3:frac_pos:R:3:Z:I:1
Si         0.00000000       0.00000000       0.00000000         0.00000000       0.00000000       0.00000000        -0.47895000       0.21422000       0.03229000         0.00000000       0.00000000       0.00000000         14
Si         1.93079697       1.11474557       0.78824292         0.00000000       0.00000000       0.00000000         0.47895000      -0.21422000      -0.03229000         0.24532300       0.24633400       0.24961000         14
2
pbc=[T, T, T] opt_strategy_bias=3 dft_virial=[[0.03107798, 0.24645813, 0.28783940], [0.24645813, 0.32750165, -0.05586244], [0.28783940, -0.05586244, -1.54366652]] castep_run_time=68.55000000 cutoff_factor=1.20000000 fix_occupancy=F num_dump_cycles=0 finite_basis_corr=automatic spin_polarized=F elec_energy_tol=0.00000010 cutoff=-1.00000000 mixing_scheme=pulay smearing_width=0.05000000 mix_charge_amp=0.05000000 dft_energy=-326.31228400 in_file=md_sample_dia.xyz@394 nneightol=1.20000000 xc_functional=PW91 max_scf_cycles=250 fine_grid_scale=4 cut_off_energy="250 eV" popn_calculate=F castep_file_name=md_sample_dia.xyz-00394/eval.castep task=SinglePoint calculate_stress=T kpoints_mp_grid=[11, 11, 11] mix_history_length=20 config_type=dia Lattice="3.85426800 0.00000000 0.00000000 1.85671500 3.32496800 0.00000000 1.83156400 1.11008100 3.24305500" Properties=species:S:1:pos:R:3:velocities:R:3:dft_force:R:3:frac_pos:R:3:Z:I:1
Si         0.00000000       0.00000000       0.00000000         0.00000000       0.00000000       0.00000000         0.32581000       0.10406000      -0.51844000         0.00000000       0.00000000       0.00000000         14
Si         1.93079700       1.11474607       0.78824398         0.00000000       0.00000000       0.00000000        -0.32581000      -0.10406000       0.51844000         0.26303300       0.25411800       0.24305600         14
2
pbc=[T, T, T] opt_strategy_bias=3 dft_virial=[[2.03449888, -0.60171041, -0.89138909], [-0.60171041, 1.19279855, 0.15503222], [-0.89138909, 0.15503222, 0.74017032]] castep_run_time=78.52000000 cutoff_factor=1.20000000 fix_occupancy=F num_dump_cycles=0 finite_basis_corr=automatic spin_polarized=F elec_energy_tol=0.00000010 cutoff=-1.00000000 mixing_scheme=pulay smearing_width=0.05000000 mix_charge_amp=0.05000000 dft_energy=-326.28935300 in_file=md_sample_dia.xyz@395 nneightol=1.20000000 xc_functional=PW91 max_scf_cycles=250 fine_grid_scale=4 cut_off_energy="250 eV" popn_calculate=F castep_file_name=md_sample_dia.xyz-00395/eval.castep task=SinglePoint calculate_stress=T kpoints_mp_grid=[12, 11, 11] mix_history_length=20 config_type=dia Lattice="3.73629000 0.00000000 0.00000000 1.90878600 3.30097800 0.00000000 2.03143800 1.10754200 3.12848100" Properties=species:S:1:pos:R:3:velocities:R:3:dft_force:R:3:frac_pos:R:3:Z:I:1
Si         0.00000000       0.00000000       0.00000000         0.00000000       0.00000000       0.00000000         0.33687000      -0.18264000      -0.26060000         0.00000000       0.00000000       0.00000000         14
Si         1.91066948       1.10312537       0.78002730         0.00000000       0.00000000       0.00000000        -0.33687000       0.18264000       0.26060000         0.24783100       0.25052600       0.24933100         14
2
pbc=[T, T, T] opt_strategy_bias=3 dft_virial=[[1.61491400, -1.14460072, -0.62644997], [-1.14460072, 1.40432316, 0.09101533], [-0.62644997, 0.09101533, 0.86512824]] castep_run_time=78.39000000 cutoff_factor=1.20000000 fix_occupancy=F num_dump_cycles=0 finite_basis_corr=automatic spin_polarized=F elec_energy_tol=0.00000010 cutoff=-1.00000000 mixing_scheme=pulay smearing_width=0.05000000 mix_charge_amp=0.05000000 dft_energy=-326.26381100 in_file=md_sample_dia.xyz@396 nneightol=1.20000000 xc_functional=PW91 max_scf_cycles=250 fine_grid_scale=4 cut_off_energy="250 eV" popn_calculate=F castep_file_name=md_sample_dia.xyz-00396/eval.castep task=SinglePoint calculate_stress=T kpoints_mp_grid=[12, 11, 11] mix_history_length=20 config_type=dia Lattice="3.75683700 0.00000000 0.00000000 2.10177200 3.28727100 0.00000000 2.04860800 1.09700600 3.11959600" Properties=species:S:1:pos:R:3:velocities:R:3:dft_force:R:3:frac_pos:R:3:Z:I:1
Si         0.00000000       0.00000000       0.00000000         0.00000000       0.00000000       0.00000000        -0.10866000      -0.07487000      -0.17671000         0.00000000       0.00000000       0.00000000         14
Si         1.91067141       1.10312598       0.78002690         0.00000000       0.00000000       0.00000000         0.10866000       0.07487000       0.17671000         0.23118100       0.25213300       0.25004100         14
2
pbc=[T, T, T] opt_strategy_bias=3 dft_virial=[[0.74284828, -1.12696763, -0.04298553], [-1.12696763, 0.37268043, -0.10165028], [-0.04298553, -0.10165028, -2.19890555]] castep_run_time=68.84000000 cutoff_factor=1.20000000 fix_occupancy=F num_dump_cycles=0 finite_basis_corr=automatic spin_polarized=F elec_energy_tol=0.00000010 cutoff=-1.00000000 mixing_scheme=pulay smearing_width=0.05000000 mix_charge_amp=0.05000000 dft_energy=-326.21237200 in_file=md_sample_dia.xyz@397 nneightol=1.20000000 xc_functional=PW91 max_scf_cycles=250 fine_grid_scale=4 cut_off_energy="250 eV" popn_calculate=F castep_file_name=md_sample_dia.xyz-00397/eval.castep task=SinglePoint calculate_stress=T kpoints_mp_grid=[11, 11, 11] mix_history_length=20 config_type=dia Lattice="3.80313200 0.00000000 0.00000000 2.17103800 3.32850100 0.00000000 1.97726400 1.17274100 3.28935500" Properties=species:S:1:pos:R:3:velocities:R:3:dft_force:R:3:frac_pos:R:3:Z:I:1
Si         0.00000000       0.00000000       0.00000000         0.00000000       0.00000000       0.00000000        -0.44516000      -0.36075000      -0.81369000         0.00000000       0.00000000       0.00000000         14
Si         1.91066952       1.10312584       0.78002778         0.00000000       0.00000000       0.00000000         0.44516000       0.36075000       0.81369000         0.23760900       0.24786700       0.23713700         14
2
pbc=[T, T, T] opt_strategy_bias=3 dft_virial=[[1.96242545, -0.18776922, -0.42977769], [-0.18776922, 0.57997648, 0.16908363], [-0.42977769, 0.16908363, 2.77345612]] castep_run_time=64.24000000 cutoff_factor=1.20000000 fix_occupancy=F num_dump_cycles=0 finite_basis_corr=automatic spin_polarized=F elec_energy_tol=0.00000010 cutoff=-1.00000000 mixing_scheme=pulay smearing_width=0.05000000 mix_charge_amp=0.05000000 dft_energy=-326.25195400 in_file=md_sample_dia.xyz@398 nneightol=1.20000000 xc_functional=PW91 max_scf_cycles=250 fine_grid_scale=4 cut_off_energy="250 eV" popn_calculate=F castep_file_name=md_sample_dia.xyz-00398/eval.castep task=SinglePoint calculate_stress=T kpoints_mp_grid=[11, 11, 11] mix_history_length=20 config_type=dia Lattice="3.74198600 0.00000000 0.00000000 1.81193500 3.33476900 0.00000000 1.89131300 1.14382800 3.04208400" Properties=species:S:1:pos:R:3:velocities:R:3:dft_force:R:3:frac_pos:R:3:Z:I:1
Si         0.00000000       0.00000000       0.00000000         0.00000000       0.00000000       0.00000000         0.65275000      -0.43465000       0.56257000         0.00000000       0.00000000       0.00000000         14
Si         1.91067176       1.10312654       0.78002684         0.00000000       0.00000000       0.00000000        -0.65275000       0.43465000      -0.56257000         0.26341500       0.24284600       0.25641200         14
2
pbc=[T, T, T] opt_strategy_bias=3 dft_virial=[[-0.92821686, 0.61108647, 0.45684915], [0.61108647, 1.86771735, -1.26559527], [0.45684915, -1.26559527, -2.11027219]] castep_run_time=78.81000000 cutoff_factor=1.20000000 fix_occupancy=F num_dump_cycles=0 finite_basis_corr=automatic spin_polarized=F elec_energy_tol=0.00000010 cutoff=-1.00000000 mixing_scheme=pulay smearing_width=0.05000000 mix_charge_amp=0.05000000 dft_energy=-326.19883700 in_file=md_sample_dia.xyz@399 nneightol=1.20000000 xc_functional=PW91 max_scf_cycles=250 fine_grid_scale=4 cut_off_energy="250 eV" popn_calculate=F castep_file_name=md_sample_dia.xyz-00399/eval.castep task=SinglePoint calculate_stress=T kpoints_mp_grid=[11, 12, 11] mix_history_length=20 config_type=dia Lattice="3.94674500 0.00000000 0.00000000 1.92083700 3.23715300 0.00000000 1.90434700 1.25594400 3.29121000" Properties=species:S:1:pos:R:3:velocities:R:3:dft_force:R:3:frac_pos:R:3:Z:I:1
Si         0.00000000       0.00000000       0.00000000         0.00000000       0.00000000       0.00000000        -0.56669000       0.51337000      -0.87373000         0.00000000       0.00000000       0.00000000         14
Si         1.91067036       1.10312767       0.78002664         0.00000000       0.00000000       0.00000000         0.56669000      -0.51337000       0.87373000         0.24865900       0.24881900       0.23700300         14
2
pbc=[T, T, T] opt_strategy_bias=3 dft_virial=[[3.99758972, -2.41468177, -1.14549429], [-2.41468177, 0.08078707, 0.76855633], [-1.14549429, 0.76855633, 2.51036044]] castep_run_time=75.64000000 cutoff_factor=1.20000000 fix_occupancy=F num_dump_cycles=0 finite_basis_corr=automatic spin_polarized=F elec_energy_tol=0.00000010 cutoff=-1.00000000 mixing_scheme=pulay smearing_width=0.05000000 mix_charge_amp=0.05000000 dft_energy=-326.05467300 in_file=md_sample_dia.xyz@400 nneightol=1.20000000 xc_functional=PW91 max_scf_cycles=250 fine_grid_scale=4 cut_off_energy="250 eV" popn_calculate=F castep_file_name=md_sample_dia.xyz-00400/eval.castep task=SinglePoint calculate_stress=T kpoints_mp_grid=[12, 11, 11] mix_history_length=20 config_type=dia Lattice="3.62412200 0.00000000 0.00000000 2.14393000 3.40821900 0.00000000 1.97634600 1.18569800 3.05408400" Properties=species:S:1:pos:R:3:velocities:R:3:dft_force:R:3:frac_pos:R:3:Z:I:1
Si         0.00000000       0.00000000       0.00000000         0.00000000       0.00000000       0.00000000         0.98585000      -1.33899000       0.18836000         0.00000000       0.00000000       0.00000000         14
Si         1.91067377       1.10312733       0.78002832         0.00000000       0.00000000       0.00000000        -0.98585000       1.33899000      -0.18836000         0.24902100       0.23481300       0.25540500         14
2
pbc=[T, T, T] opt_strategy_bias=3 dft_virial=[[0.36361248, -0.07563389, -0.75107734], [-0.07563389, -1.01110915, -0.05264406], [-0.75107734, -0.05264406, 1.09698195]] castep_run_time=68.21000000 cutoff_factor=1.20000000 fix_occupancy=F num_dump_cycles=0 finite_basis_corr=automatic spin_polarized=F elec_energy_tol=0.00000010 cutoff=-1.00000000 mixing_scheme=pulay smearing_width=0.05000000 mix_charge_amp=0.05000000 dft_energy=-326.25863900 in_file=md_sample_dia.xyz@401 nneightol=1.20000000 xc_functional=PW91 max_scf_cycles=250 fine_grid_scale=4 cut_off_energy="250 eV" popn_calculate=F castep_file_name=md_sample_dia.xyz-00401/eval.castep task=SinglePoint calculate_stress=T kpoints_mp_grid=[11, 11, 11] mix_history_length=20 config_type=dia Lattice="3.83287700 0.00000000 0.00000000 1.91844500 3.40975200 0.00000000 2.15553800 1.25449900 3.09101000" Properties=species:S:1:pos:R:3:velocities:R:3:dft_force:R:3:frac_pos:R:3:Z:I:1
Si         0.00000000       0.00000000       0.00000000         0.00000000       0.00000000       0.00000000        -0.46521000      -0.71115000       0.26589000         0.00000000       0.00000000       0.00000000         14
Si         1.91067349       1.10312579       0.78002874         0.00000000       0.00000000       0.00000000         0.46521000       0.71115000      -0.26589000         0.24111800       0.23067600       0.25235400         14
2
pbc=[T, T, T] opt_strategy_bias=3 dft_virial=[[0.13624893, -0.69364922, -0.27949561], [-0.69364922, -0.17986428, 0.36264217], [-0.27949561, 0.36264217, -1.47719662]] castep_run_time=67.21000000 cutoff_factor=1.20000000 fix_occupancy=F num_dump_cycles=0 finite_basis_corr=automatic spin_polarized=F elec_energy_tol=0.00000010 cutoff=-1.00000000 mixing_scheme=pulay smearing_width=0.05000000 mix_charge_amp=0.05000000 dft_energy=-326.26308700 in_file=md_sample_dia.xyz@403 nneightol=1.20000000 xc_functional=PW91 max_scf_cycles=250 fine_grid_scale=4 cut_off_energy="250 eV" popn_calculate=F castep_file_name=md_sample_dia.xyz-00403/eval.castep task=SinglePoint calculate_stress=T kpoints_mp_grid=[11, 11, 11] mix_history_length=20 config_type=dia Lattice="3.84717500 0.00000000 0.00000000 2.12721200 3.35246000 0.00000000 2.06659400 1.06388800 3.23195300" Properties=species:S:1:pos:R:3:velocities:R:3:dft_force:R:3:frac_pos:R:3:Z:I:1
Si         0.00000000       0.00000000       0.00000000         0.00000000       0.00000000       0.00000000        -0.75747000      -0.21145000      -0.54124000         0.00000000       0.00000000       0.00000000         14
Si         1.91067104       1.10312700       0.78002862         0.00000000       0.00000000       0.00000000         0.75747000       0.21145000       0.54124000         0.22740500       0.25245900       0.24134900         14
2
pbc=[T, T, T] opt_strategy_bias=3 dft_virial=[[1.53645986, -0.90029864, -0.33690376], [-0.90029864, 0.17014601, 0.34715223], [-0.33690376, 0.34715223, -2.21750653]] castep_run_time=68.15000000 cutoff_factor=1.20000000 fix_occupancy=F num_dump_cycles=0 finite_basis_corr=automatic spin_polarized=F elec_energy_tol=0.00000010 cutoff=-1.00000000 mixing_scheme=pulay smearing_width=0.05000000 mix_charge_amp=0.05000000 dft_energy=-326.23627400 in_file=md_sample_dia.xyz@404 nneightol=1.20000000 xc_functional=PW91 max_scf_cycles=250 fine_grid_scale=4 cut_off_energy="250 eV" popn_calculate=F castep_file_name=md_sample_dia.xyz-00404/eval.castep task=SinglePoint calculate_stress=T kpoints_mp_grid=[11, 11, 11] mix_history_length=20 config_type=dia Lattice="3.75979900 0.00000000 0.00000000 2.03266100 3.34614200 0.00000000 1.95970500 1.09584500 3.29871500" Properties=species:S:1:pos:R:3:velocities:R:3:dft_force:R:3:frac_pos:R:3:Z:I:1
Si         0.00000000       0.00000000       0.00000000         0.00000000       0.00000000       0.00000000         0.08226000      -0.39401000      -0.89724000         0.00000000       0.00000000       0.00000000         14
Si         1.91067100       1.10312529       0.78002734         0.00000000       0.00000000       0.00000000        -0.08226000       0.39401000       0.89724000         0.24857000       0.25223000       0.23646400         14
2
pbc=[T, T, T] opt_strategy_bias=3 dft_virial=[[0.66549997, -0.35424960, -0.36952379], [-0.35424960, 2.26280137, -1.34290227], [-0.36952379, -1.34290227, 2.88497954]] castep_run_time=77.09000000 cutoff_factor=1.20000000 fix_occupancy=F num_dump_cycles=0 finite_basis_corr=automatic spin_polarized=F elec_energy_tol=0.00000010 cutoff=-1.00000000 mixing_scheme=pulay smearing_width=0.05000000 mix_charge_amp=0.05000000 dft_energy=-326.11348100 in_file=md_sample_dia.xyz@405 nneightol=1.20000000 xc_functional=PW91 max_scf_cycles=250 fine_grid_scale=4 cut_off_energy="250 eV" popn_calculate=F castep_file_name=md_sample_dia.xyz-00405/eval.castep task=SinglePoint calculate_stress=T kpoints_mp_grid=[11, 12, 12] mix_history_length=20 config_type=dia Lattice="3.82153400 0.00000000 0.00000000 2.02281400 3.22674900 0.00000000 2.16847700 1.37415300 3.02626800" Properties=species:S:1:pos:R:3:velocities:R:3:dft_force:R:3:frac_pos:R:3:Z:I:1
Si         0.00000000       0.00000000       0.00000000         0.00000000       0.00000000       0.00000000        -0.70071000       0.15997000       0.19690000         0.00000000       0.00000000       0.00000000         14
Si         1.89292191       1.09287899       0.77278174         0.00000000       0.00000000       0.00000000         0.70071000      -0.15997000      -0.19690000         0.22871600       0.22994600       0.25535800         14
2
pbc=[T, T, T] opt_strategy_bias=3 dft_virial=[[1.48630653, 0.44739488, -0.81537965], [0.44739488, -0.83807327, 0.75888010], [-0.81537965, 0.75888010, -0.38391862]] castep_run_time=66.30000000 cutoff_factor=1.20000000 fix_occupancy=F num_dump_cycles=0 finite_basis_corr=automatic spin_polarized=F elec_energy_tol=0.00000010 cutoff=-1.00000000 mixing_scheme=pulay smearing_width=0.05000000 mix_charge_amp=0.05000000 dft_energy=-326.27314600 in_file=md_sample_dia.xyz@406 nneightol=1.20000000 xc_functional=PW91 max_scf_cycles=250 fine_grid_scale=4 cut_off_energy="250 eV" popn_calculate=F castep_file_name=md_sample_dia.xyz-00406/eval.castep task=SinglePoint calculate_stress=T kpoints_mp_grid=[11, 11, 11] mix_history_length=20 config_type=dia Lattice="3.77044900 0.00000000 0.00000000 1.74962600 3.41129800 0.00000000 2.02506100 1.07515200 3.16808500" Properties=species:S:1:pos:R:3:velocities:R:3:dft_force:R:3:frac_pos:R:3:Z:I:1
Si         0.00000000       0.00000000       0.00000000         0.00000000       0.00000000       0.00000000         0.11323000      -0.75630000      -0.38063000         0.00000000       0.00000000       0.00000000         14
Si         1.89292321       1.09287896       0.77278147         0.00000000       0.00000000       0.00000000        -0.11323000       0.75630000       0.38063000         0.25804300       0.24349100       0.24392700         14
2
pbc=[T, T, T] opt_strategy_bias=3 dft_virial=[[1.21333118, 0.59629344, 0.04012697], [0.59629344, -0.39984095, 1.10903371], [0.04012697, 1.10903371, 1.34852089]] castep_run_time=62.95000000 cutoff_factor=1.20000000 fix_occupancy=F num_dump_cycles=0 finite_basis_corr=automatic spin_polarized=F elec_energy_tol=0.00000010 cutoff=-1.00000000 mixing_scheme=pulay smearing_width=0.05000000 mix_charge_amp=0.05000000 dft_energy=-326.27448200 in_file=md_sample_dia.xyz@407 nneightol=1.20000000 xc_functional=PW91 max_scf_cycles=250 fine_grid_scale=4 cut_off_energy="250 eV" popn_calculate=F castep_file_name=md_sample_dia.xyz-00407/eval.castep task=SinglePoint calculate_stress=T kpoints_mp_grid=[11, 11, 11] mix_history_length=20 config_type=dia Lattice="3.79593200 0.00000000 0.00000000 1.75633100 3.37202900 0.00000000 1.85075900 0.90336300 3.08601700" Properties=species:S:1:pos:R:3:velocities:R:3:dft_force:R:3:frac_pos:R:3:Z:I:1
Si         0.00000000       0.00000000       0.00000000         0.00000000       0.00000000       0.00000000         0.21457000      -0.26763000       0.13497000         0.00000000       0.00000000       0.00000000         14
Si         1.89292097       1.09288015       0.77278186         0.00000000       0.00000000       0.00000000        -0.21457000       0.26763000      -0.13497000         0.25766000       0.25701600       0.25041400         14
2
pbc=[T, T, T] opt_strategy_bias=3 dft_virial=[[0.67541033, 0.19634157, -0.99167103], [0.19634157, 2.81635915, -0.40951259], [-0.99167103, -0.40951259, 2.75901312]] castep_run_time=75.89000000 cutoff_factor=1.20000000 fix_occupancy=F num_dump_cycles=0 finite_basis_corr=automatic spin_polarized=F elec_energy_tol=0.00000010 cutoff=-1.00000000 mixing_scheme=pulay smearing_width=0.05000000 mix_charge_amp=0.05000000 dft_energy=-326.13192400 in_file=md_sample_dia.xyz@408 nneightol=1.20000000 xc_functional=PW91 max_scf_cycles=250 fine_grid_scale=4 cut_off_energy="250 eV" popn_calculate=F castep_file_name=md_sample_dia.xyz-00408/eval.castep task=SinglePoint calculate_stress=T kpoints_mp_grid=[12, 12, 11] mix_history_length=20 config_type=dia Lattice="3.82268000 0.00000000 0.00000000 1.88134800 3.21139300 0.00000000 2.26617600 1.12824400 3.03107800" Properties=species:S:1:pos:R:3:velocities:R:3:dft_force:R:3:frac_pos:R:3:Z:I:1
Si         0.00000000       0.00000000       0.00000000         0.00000000       0.00000000       0.00000000        -0.57528000       0.53604000       0.16259000         0.00000000       0.00000000       0.00000000         14
Si         1.89292215       1.09288030       0.77278243         0.00000000       0.00000000       0.00000000         0.57528000      -0.53604000      -0.16259000         0.22063600       0.25074200       0.25495300         14
2
pbc=[T, T, T] opt_strategy_bias=3 dft_virial=[[2.58239421, 0.03287647, -0.97370075], [0.03287647, 4.15546125, -0.50529319], [-0.97370075, -0.50529319, 3.48090174]] castep_run_time=73.41000000 cutoff_factor=1.20000000 fix_occupancy=F num_dump_cycles=0 finite_basis_corr=automatic spin_polarized=F elec_energy_tol=0.00000010 cutoff=-1.00000000 mixing_scheme=pulay smearing_width=0.05000000 mix_charge_amp=0.05000000 dft_energy=-326.06731200 in_file=md_sample_dia.xyz@409 nneightol=1.20000000 xc_functional=PW91 max_scf_cycles=250 fine_grid_scale=4 cut_off_energy="250 eV" popn_calculate=F castep_file_name=md_sample_dia.xyz-00409/eval.castep task=SinglePoint calculate_stress=T kpoints_mp_grid=[12, 12, 12] mix_history_length=20 config_type=dia Lattice="3.71204900 0.00000000 0.00000000 1.68376100 3.17518100 0.00000000 2.03182500 1.13480000 3.02587500" Properties=species:S:1:pos:R:3:velocities:R:3:dft_force:R:3:frac_pos:R:3:Z:I:1
Si         0.00000000       0.00000000       0.00000000         0.00000000       0.00000000       0.00000000         0.50349000       0.54442000       0.11708000         0.00000000       0.00000000       0.00000000         14
Si         1.89292285       1.09287927       0.77278427         0.00000000       0.00000000       0.00000000        -0.50349000      -0.54442000      -0.11708000         0.25542700       0.25291800       0.25539200         14
2